56
Properties=species:S:1:pos:R:3:forces:R:3 energy=-22333.1015625 free_energy=-22333.1015625 pbc="F F F"
O        2.50196422      -0.11183711      -0.10639655       0.00000173      -0.00000033       0.00000305
C        1.15038870       0.08366044      -0.51323013       0.00000304      -0.00000355      -0.00000417
C        0.71780421       1.53094535      -0.55943993      -0.00000197       0.00000593       0.00000065
C        2.19995606      -0.13858645      -1.49894978      -0.00000721       0.00000468       0.00000483
C        2.48765190       1.15713203      -2.22388263       0.00000030       0.00000370      -0.00000221
C        1.82517056       2.26406324      -1.36187863       0.00000660      -0.00001642       0.00000539
C        2.84457159       2.99269815      -0.47230332       0.00000264      -0.00000393      -0.00000078
C        2.24882167       4.20020408       0.25158742       0.00000268       0.00000066       0.00000760
C        3.28105235       5.05436223       0.99688264      -0.00000793       0.00000511       0.00000295
C        4.01719264       4.30312126       2.10787648      -0.00000891       0.00000744      -0.00000069
C        4.77214731       5.18389914       3.11279042       0.00000612       0.00001496       0.00000824
C        5.92649148       6.02428652       2.54760222      -0.00000443      -0.00000858       0.00000186
C        5.52000918       7.35223060       1.89958694      -0.00000080       0.00000396       0.00000556
C        6.71972526       8.25352201       1.60300216       0.00001547      -0.00000566      -0.00000222
C        6.33106641       9.57186645       0.93814055      -0.00000015       0.00000352      -0.00000331
C        7.52592162      10.48459953       0.66974674       0.00000242       0.00000170       0.00000256
C        7.14126325      11.79399644      -0.01592096       0.00001356       0.00000221       0.00000326
C        8.33450849      12.71169542      -0.27339590      -0.00001218      -0.00000772       0.00000763
C        7.95429493      14.02030219      -0.96473861       0.00000042       0.00001329      -0.00000052
C        9.15537277      14.92995295      -1.21433135       0.00000542      -0.00000119      -0.00000323
H        1.37469785       3.02163491      -2.01705417      -0.00000467       0.00000950      -0.00000719
H        1.47703429       3.86701074       0.96080339       0.00000066      -0.00000051       0.00000024
H        3.27910535       2.28577787       0.24140354      -0.00000169       0.00000192      -0.00000295
H        3.67022768       3.34197200      -1.10785094      -0.00000151      -0.00000095       0.00000092
H        2.36133307      -1.09509514      -1.99665598       0.00000123      -0.00000422      -0.00000240
H        0.44888807      -0.68878988      -0.19877442       0.00000067      -0.00000001       0.00000056
H        1.73897367       4.83919739      -0.48201252      -0.00000242       0.00000547      -0.00000485
H        2.76134834       5.92125348       1.42886179       0.00000551      -0.00000933      -0.00000352
H        4.00273206       5.45348275       0.27008589       0.00000127       0.00000025      -0.00000033
H        4.72445940       3.58758587       1.66331083       0.00000572      -0.00000611      -0.00000432
H        3.28858846       3.69959703       2.66903725      -0.00000169      -0.00000190      -0.00000045
H        5.17367096       4.52024531       3.89047121      -0.00000091       0.00000125      -0.00000181
H        4.06116982       5.84718869       3.62818628       0.00000341      -0.00000527      -0.00000335
H        4.83290174       7.88238425       2.57548097      -0.00000141      -0.00000037      -0.00000086
H        6.50931427       5.42434245       1.83258375       0.00000217       0.00000003      -0.00000009
H        6.61397240       6.25825859       3.37291973      -0.00000110      -0.00000154      -0.00000054
H        4.96061591       7.18586662       0.97047248      -0.00000433      -0.00000231      -0.00000462
H        5.60573838      10.10133119       1.57275524      -0.00000249       0.00000477       0.00000274
H        7.42955383       7.71629552       0.95652801      -0.00000479       0.00000221       0.00000414
H        7.25646244       8.46359208       2.53957047      -0.00000183      -0.00000036      -0.00000053
H        5.81534696       9.36276289      -0.01000254      -0.00000016      -0.00000048      -0.00000093
H        6.40193352      12.32437374       0.60134836      -0.00000107      -0.00000127       0.00000158
H        8.25906843       9.95052956       0.04812302      -0.00000323       0.00000629       0.00000316
H        8.03298334      10.70786525       1.61947492      -0.00000484      -0.00000495      -0.00000741
H        6.64206008      11.57205249      -0.97007136      -0.00000405      -0.00000361      -0.00000443
H        7.21294118      14.55107830      -0.35257869       0.00000228      -0.00000082      -0.00000051
H        9.07659098      12.18103926      -0.88724687       0.00000698      -0.00000197      -0.00000325
H        8.83226549      12.93858081       0.68045073       0.00000165      -0.00000030      -0.00000126
H        7.46007518      13.79521905      -1.91928324      -0.00000061      -0.00000258      -0.00000273
H        8.85592992      15.85888822      -1.71078532      -0.00000191      -0.00000191       0.00000086
H        9.89928007      14.43726689      -1.85038309      -0.00000510       0.00000101       0.00000259
H        9.64982942      15.19920864      -0.27426763      -0.00000047       0.00000019       0.00000191
H        3.56558262       1.31990766      -2.35355652       0.00000042       0.00000050       0.00000009
H        2.03042311       1.11554489      -3.21972527      -0.00000036      -0.00000048       0.00000210
H        0.58010773       1.93823762       0.44941735       0.00000004      -0.00000095       0.00000015
H       -0.24566715       1.59440406      -1.07931178       0.00000165      -0.00000100       0.00000098
