17
Properties=species:S:1:pos:R:3:forces:R:3 energy=-8429.416015625 free_energy=-8429.416015625 pbc="F F F"
O        0.77205008       0.87839589      -2.74899646       0.00000575      -0.00000475       0.00000230
C        2.04482217       1.38261465      -2.35755776      -0.00000179      -0.00000054       0.00000415
C        2.13002846       1.79935468      -0.90639342      -0.00000146      -0.00000916       0.00000554
C        1.80264959      -0.05277739      -2.43564224      -0.00000010      -0.00000024      -0.00000057
C        1.72098997      -0.62507321      -1.03828039      -0.00000173      -0.00000203      -0.00000961
C        1.55496596       0.60240372      -0.10369657       0.00000435      -0.00000869       0.00000170
C        0.10120857       0.82464532       0.31964151       0.00000033      -0.00000870       0.00000811
H        3.18164238       1.97373889      -0.64997491       0.00000185       0.00000018      -0.00000459
H        1.57754975       2.72823663      -0.71528391      -0.00000494       0.00000720      -0.00000002
H        2.65294625      -1.15991584      -0.82044440       0.00000739      -0.00000085       0.00000268
H        0.89172022      -1.33677095      -0.93641724      -0.00000381       0.00000059      -0.00000051
H        2.58465646       1.94109140      -3.12244623       0.00000598       0.00000162      -0.00001112
H        2.14359562      -0.67314788      -3.26465907      -0.00000464       0.00000792       0.00000225
H       -0.27048972      -0.04202245       0.87816592       0.00000402       0.00000912      -0.00000101
H       -0.55426088       0.98198311      -0.53975520      -0.00000247       0.00000420      -0.00000405
H        0.02361732       1.70118950       0.97299548      -0.00000476       0.00000007       0.00000196
H        2.14032807       0.45389413       0.81082520      -0.00000396       0.00000435       0.00000297
