97
	Energy:      94.1686488
H        472.79196      318.86113      338.11925
H        472.55387      325.68774      336.96520
H        478.13966      326.99375      338.75959
H        478.52544      326.55395      335.73108
H        476.00492      316.44673      343.26397
H        478.79193      323.49970      340.03225
H        479.36751      325.82498      338.21284
H        476.31845      318.19470      345.85992
H        475.93740      318.21356      331.85693
H        470.21186      318.65269      332.67844
H        474.28274      320.34742      334.75340
H        477.59271      322.51199      337.90174
H        477.69046      324.03903      341.29753
O        473.27552      327.64889      339.62192
H        472.66387      327.54891      337.04411
H        477.16473      320.49021      344.18430
H        477.00784      318.43519      330.55740
C        476.93151      324.21334      336.73277
C        477.77030      323.39121      340.41496
C        476.80161      323.87020      339.34978
C        476.07246      317.49259      342.99639
C        476.76511      320.19937      333.41179
C        479.75683      321.70140      341.84198
C        472.74762      318.53154      336.08824
C        474.26512      324.34889      339.22834
C        472.70143      326.59157      337.54558
C        477.32163      319.71269      332.14873
C        477.11807      323.49201      337.98275
C        471.83324      318.59036      334.96428
C        473.11526      325.19155      339.67658
O        480.39259      321.19378      340.87726
C        476.97896      321.60554      333.77832
C        473.03365      326.48700      338.93165
C        474.73471      316.48749      337.42829
H        473.18304      325.38143      340.75459
H        469.50736      318.12870      330.21550
H        470.29557      315.94250      328.80749
H        479.12545      319.30800      341.07292
H        474.15160      323.69743      338.36831
H        476.53386      321.57599      335.89917
N        476.86557      318.49999      331.55893
H        472.18634      324.62831      339.52626
H        476.24093      318.32008      338.73583
H        475.84251      317.78712      341.97707
H        474.06045      315.98984      336.72401
H        470.88284      319.08755      335.13299
H        479.50292      327.53591      337.77112
H        480.48970      321.25582      343.80578
H        476.15908      326.03791      337.62923
H        477.14163      318.28572      337.20888
H        472.96800      317.47684      333.50079
N        472.15764      318.55480      337.38589
N        477.47750      322.00341      340.76415
N        478.09087      319.22551      341.16066
C        471.35856      317.54083      331.21721
C        470.46301      317.63073      330.09477
C        470.76964      316.92841      328.81964
H        477.42212      324.25239      334.61468
H        475.65270      315.89257      337.47595
H        473.29322      328.43168      339.04748
C        475.57696      324.50254      339.80689
H        478.04637      318.49708      345.59908
C        480.54623      322.05784      343.06135
C        476.86164      318.39649      343.79883
C        477.08516      323.60330      335.41817
C        478.01957      326.46665      336.68583
C        477.16762      317.97535      345.20414
C        477.82575      320.09675      342.23791
C        476.19714      318.58375      337.67399
H        470.37938      317.50509      327.97537
C        474.22487      318.56443      336.00258
C        478.23878      321.57142      341.96116
H        476.10613      319.67283      337.61624
H        471.23124      318.95188      337.46743
H        476.11248      326.00728      335.89457
C        478.79776      326.71497      337.93156
C        475.04794      317.88827      337.01356
C        476.83121      322.22257      335.07698
H        472.28869      316.99510      331.07314
C        472.03950      318.02390      333.65020
C        474.85228      319.46119      335.02443
C        477.28248      319.73159      343.41493
H        481.60448      322.24746      342.84473
C        476.10760      319.26819      334.33284
H        477.35125      322.25404      332.98900
H        476.59778      318.30526      334.46167
H        477.37778      316.90186      345.26178
C        476.72669      325.70984      336.75468
H        477.90226      319.81594      340.33641
H        475.66404      325.14362      340.68103
C        471.13937      318.10680      332.52594
H        480.14321      322.96983      343.51562
H        478.09101      320.30415      331.65888
H        474.26886      316.47819      338.41858
H        471.84631      316.80229      328.66937
H        476.49466      321.91669      340.99655
H        477.90717      322.19412      342.80408
